ITEM: TIMESTEP
3000000
ITEM: NUMBER OF ATOMS
96000
ITEM: BOX BOUNDS pp pp pp
0 600.0
0 600.0
-5 5
ITEM: ATOMS id type xs ys zs
1 1 0.959930419922 0.201385498047 0.5
2 1 0.959655761719 0.203018188477 0.5
3 1 0.95964050293 0.204681396484 0.5
4 1 0.959381103516 0.206359863281 0.5
5 1 0.959121704102 0.207992553711 0.5
6 1 0.958572387695 0.209579467773 0.5
7 1 0.957778930664 0.211059570312 0.5
8 1 0.957077026367 0.21257019043 0.5
9 1 0.956130981445 0.214004516602 0.5
10 1 0.955230712891 0.215393066406 0.5
11 1 0.954177856445 0.216659545898 0.5
12 1 0.953384399414 0.218154907227 0.5
13 1 0.952529907227 0.219635009766 0.5
14 1 0.951477050781 0.220916748047 0.5
15 1 0.950485229492 0.222183227539 0.5
16 1 0.949203491211 0.223190307617 0.5
17 1 0.947952270508 0.22428894043 0.5
18 1 0.946701049805 0.225372314453 0.5
19 1 0.945449829102 0.226440429688 0.5
20 1 0.944488525391 0.227813720703 0.5
21 1 0.94352722168 0.229232788086 0.5
22 1 0.94270324707 0.230697631836 0.5
23 1 0.941787719727 0.232086181641 0.5
24 1 0.94108581543 0.23356628418 0.5
25 1 0.940719604492 0.235168457031 0.5
26 1 0.940170288086 0.236679077148 0.5
27 1 0.939743041992 0.238296508789 0.5
28 1 0.939437866211 0.23991394043 0.5
29 1 0.939086914062 0.241546630859 0.5
30 1 0.939071655273 0.243209838867 0.5
31 1 0.938888549805 0.244827270508 0.5
32 1 0.938507080078 0.246459960938 0.5
33 1 0.937835693359 0.248016357422 0.5
34 1 0.937118530273 0.249542236328 0.5
35 1 0.936569213867 0.25114440918 0.5
36 1 0.9365234375 0.252777099609 0.5
37 1 0.937072753906 0.25439453125 0.5
38 1 0.937561035156 0.256011962891 0.5
39 1 0.938095092773 0.257598876953 0.5
40 1 0.938888549805 0.25910949707 0.5
41 1 0.939910888672 0.26042175293 0.5
42 1 0.941116333008 0.261611938477 0.5
43 1 0.942108154297 0.262939453125 0.5
44 1 0.943023681641 0.264358520508 0.5
45 1 0.944000244141 0.265686035156 0.5
46 1 0.945159912109 0.266860961914 0.5
47 1 0.946701049805 0.267562866211 0.5
48 1 0.948272705078 0.268081665039 0.5
49 1 0.949813842773 0.268753051758 0.5
50 1 0.951354980469 0.269378662109 0.5
51 1 0.952529907227 0.270599365234 0.5
52 1 0.953491210938 0.271926879883 0.5
53 1 0.954406738281 0.27326965332 0.5
54 1 0.954986572266 0.274795532227 0.5
55 1 0.954711914062 0.276412963867 0.5
56 1 0.954406738281 0.278030395508 0.5
57 1 0.953704833984 0.279525756836 0.5
58 1 0.952682495117 0.280883789062 0.5
59 1 0.951461791992 0.281921386719 0.5
60 1 0.949951171875 0.28254699707 0.5
61 1 0.948364257812 0.28303527832 0.5
62 1 0.946746826172 0.282943725586 0.5
63 1 0.945037841797 0.28271484375 0.5
64 1 0.943435668945 0.282089233398 0.5
65 1 0.942092895508 0.281143188477 0.5
66 1 0.94108581543 0.279907226562 0.5
67 1 0.940200805664 0.278442382812 0.5
68 1 0.939056396484 0.277252197266 0.5
69 1 0.937774658203 0.27619934082 0.5
70 1 0.936492919922 0.275085449219 0.5
71 1 0.935211181641 0.274063110352 0.5
72 1 0.933898925781 0.27294921875 0.5
73 1 0.932723999023 0.271774291992 0.5
74 1 0.931335449219 0.270874023438 0.5
75 1 0.930053710938 0.269882202148 0.5
76 1 0.0738677978516 0.419677734375 0.5
77 1 0.0726623535156 0.418548583984 0.5
78 1 0.0713348388672 0.417587280273 0.5
79 1 0.0700378417969 0.416473388672 0.5
80 1 0.0686645507812 0.415512084961 0.5
81 1 0.0674896240234 0.414306640625 0.5
82 1 0.0663452148438 0.413040161133 0.5
83 1 0.0654754638672 0.411651611328 0.5
84 1 0.0650329589844 0.410034179688 0.5
85 1 0.0642852783203 0.408615112305 0.5
86 1 0.0634307861328 0.407180786133 0.5
87 1 0.0625 0.40576171875 0.5
88 1 0.0616455078125 0.404296875 0.5
89 1 0.0606994628906 0.402908325195 0.5
90 1 0.0595550537109 0.401641845703 0.5
91 1 0.0582580566406 0.400588989258 0.5
92 1 0.05712890625 0.399398803711 0.5
93 1 0.0559234619141 0.398208618164 0.5
94 1 0.0547027587891 0.397018432617 0.5
95 1 0.0535583496094 0.39582824707 0.5
96 1 0.0524749755859 0.394561767578 0.5
97 1 0.0512237548828 0.393447875977 0.5
98 1 0.0499267578125 0.392333984375 0.5
99 1 0.0488586425781 0.39111328125 0.5
100 1 0.0476226806641 0.389892578125 0.5
101 1 0.0465698242188 0.388610839844 0.5
102 1 0.0454559326172 0.387313842773 0.5
103 1 0.0444488525391 0.385940551758 0.5
104 1 0.0436401367188 0.38444519043 0.5
105 1 0.0429229736328 0.382934570312 0.5
106 1 0.0422058105469 0.381454467773 0.5
107 1 0.0414276123047 0.379943847656 0.5
108 1 0.0403594970703 0.378662109375 0.5
109 1 0.0398559570312 0.377090454102 0.5
110 1 0.039306640625 0.375549316406 0.5
111 1 0.0385131835938 0.3740234375 0.5
112 1 0.0376892089844 0.372573852539 0.5
113 1 0.0367431640625 0.371200561523 0.5
114 1 0.03564453125 0.369903564453 0.5
115 1 0.0345611572266 0.368698120117 0.5
116 1 0.0333099365234 0.367568969727 0.5
117 1 0.0318603515625 0.366806030273 0.5
118 1 0.0303955078125 0.366012573242 0.5
119 1 0.0288848876953 0.365356445312 0.5
120 1 0.0274505615234 0.36442565918 0.5
121 1 0.0259246826172 0.363708496094 0.5
122 1 0.0242309570312 0.363739013672 0.5
123 1 0.0226593017578 0.364242553711 0.5
124 1 0.0210571289062 0.364700317383 0.5
125 1 0.0193634033203 0.364700317383 0.5
126 1 0.0176849365234 0.364669799805 0.5
127 1 0.0160522460938 0.364898681641 0.5
128 1 0.0145416259766 0.365478515625 0.5
129 1 0.01318359375 0.366439819336 0.5
130 1 0.011962890625 0.367538452148 0.5
131 1 0.0108184814453 0.368774414062 0.5
132 1 0.00965881347656 0.370010375977 0.5
133 1 0.00852966308594 0.37126159668 0.5
134 1 0.00749206542969 0.372589111328 0.5
135 1 0.00639343261719 0.373825073242 0.5
136 1 0.00547790527344 0.375183105469 0.5
137 1 0.00445556640625 0.37646484375 0.5
138 1 0.00370788574219 0.377960205078 0.5
139 1 0.00323486328125 0.379577636719 0.5
140 1 0.0028076171875 0.38117980957 0.5
141 1 0.00277709960938 0.382873535156 0.5
142 1 0.00273132324219 0.384521484375 0.5
143 1 0.00288391113281 0.386169433594 0.5
144 1 0.00297546386719 0.387832641602 0.5
145 1 0.00299072265625 0.389511108398 0.5
146 1 0.00302124023438 0.391220092773 0.5
147 1 0.0032958984375 0.392868041992 0.5
148 1 0.00344848632812 0.39453125 0.5
149 1 0.00352478027344 0.396255493164 0.5
150 1 0.00361633300781 0.397857666016 0.5
151 1 0.0505523681641 0.160934448242 0.5
152 1 0.0518188476562 0.159866333008 0.5
153 1 0.0531463623047 0.158905029297 0.5
154 1 0.0543365478516 0.15771484375 0.5
155 1 0.0554962158203 0.156478881836 0.5
156 1 0.0565185546875 0.155181884766 0.5
157 1 0.0575103759766 0.153854370117 0.5
158 1 0.0584869384766 0.152526855469 0.5
159 1 0.0592956542969 0.15104675293 0.5
160 1 0.0599517822266 0.149520874023 0.5
161 1 0.0607299804688 0.148071289062 0.5
162 1 0.0613098144531 0.146530151367 0.5
163 1 0.0615081787109 0.14485168457 0.5
164 1 0.0618286132812 0.143218994141 0.5
165 1 0.0623168945312 0.141662597656 0.5
166 1 0.0632019042969 0.14030456543 0.5
167 1 0.0635986328125 0.138610839844 0.5
168 1 0.0639038085938 0.136993408203 0.5
169 1 0.0644378662109 0.13542175293 0.5
170 1 0.0647430419922 0.1337890625 0.5
171 1 0.0648345947266 0.132095336914 0.5
172 1 0.0650787353516 0.130416870117 0.5
173 1 0.0650024414062 0.12873840332 0.5
174 1 0.0651092529297 0.127105712891 0.5
175 1 0.0651702880859 0.125442504883 0.5
176 1 0.0650024414062 0.123764038086 0.5
177 1 0.0646667480469 0.122146606445 0.5
178 1 0.0643463134766 0.120559692383 0.5
179 1 0.0643310546875 0.118865966797 0.5
180 1 0.0642700195312 0.117202758789 0.5
181 1 0.0641326904297 0.115570068359 0.5
182 1 0.0636596679688 0.113983154297 0.5
183 1 0.0634002685547 0.112380981445 0.5
184 1 0.0632019042969 0.110702514648 0.5
185 1 0.0630493164062 0.109100341797 0.5
186 1 0.0630340576172 0.107482910156 0.5
187 1 0.0624084472656 0.10595703125 0.5
188 1 0.0625 0.104293823242 0.5
189 1 0.062744140625 0.102600097656 0.5
190 1 0.0630645751953 0.100967407227 0.5
191 1 0.0631561279297 0.0993041992188 0.5
192 1 0.0631866455078 0.0976409912109 0.5
193 1 0.0630645751953 0.0960083007812 0.5
194 1 0.0629425048828 0.0943603515625 0.5
195 1 0.0626678466797 0.0927429199219 0.5
196 1 0.0621185302734 0.0911712646484 0.5
197 1 0.0616607666016 0.0895538330078 0.5
198 1 0.0608978271484 0.0880432128906 0.5
199 1 0.0596771240234 0.0868988037109 0.5
200 1 0.05859375 0.0855712890625 0.5
201 1 0.0576324462891 0.0842590332031 0.5
202 1 0.0566864013672 0.0828704833984 0.5
203 1 0.0558624267578 0.0814056396484 0.5
204 1 0.0546875 0.0801239013672 0.5
205 1 0.0536499023438 0.0787963867188 0.5
206 1 0.0524139404297 0.0776519775391 0.5
207 1 0.0514221191406 0.0763549804688 0.5
208 1 0.0504913330078 0.0749206542969 0.5
209 1 0.0491790771484 0.0738220214844 0.5
210 1 0.0479888916016 0.0726623535156 0.5
211 1 0.0467681884766 0.0715484619141 0.5
212 1 0.04541015625 0.0705261230469 0.5
213 1 0.0440979003906 0.0694885253906 0.5
214 1 0.0432434082031 0.0680541992188 0.5
215 1 0.0421142578125 0.0668182373047 0.5
216 1 0.0411071777344 0.0655670166016 0.5
217 1 0.0402984619141 0.0640716552734 0.5
218 1 0.0394134521484 0.0626678466797 0.5
219 1 0.0384063720703 0.0613403320312 0.5
220 1 0.0375366210938 0.0599212646484 0.5
221 1 0.0367126464844 0.0584564208984 0.5
222 1 0.0361785888672 0.056884765625 0.5
223 1 0.0358428955078 0.0552215576172 0.5
224 1 0.0351867675781 0.0536804199219 0.5
225 1 0.0345458984375 0.0522003173828 0.5
226 1 0.723846435547 0.371368408203 0.5
227 1 0.725158691406 0.370361328125 0.5
228 1 0.7265625 0.369552612305 0.5
229 1 0.727935791016 0.368621826172 0.5
230 1 0.729293823242 0.367630004883 0.5
231 1 0.730834960938 0.366912841797 0.5
232 1 0.732391357422 0.366409301758 0.5
233 1 0.734008789062 0.366027832031 0.5
234 1 0.735610961914 0.365615844727 0.5
235 1 0.737152099609 0.364990234375 0.5
236 1 0.73876953125 0.364517211914 0.5
237 1 0.740341186523 0.36393737793 0.5
238 1 0.741912841797 0.363418579102 0.5
239 1 0.743576049805 0.363372802734 0.5
240 1 0.745239257812 0.36344909668 0.5
241 1 0.746871948242 0.363510131836 0.5
242 1 0.748565673828 0.363510131836 0.5
243 1 0.750259399414 0.363540649414 0.5
244 1 0.751892089844 0.363708496094 0.5
245 1 0.753555297852 0.363479614258 0.5
246 1 0.755187988281 0.36311340332 0.5
247 1 0.756790161133 0.362670898438 0.5
248 1 0.758438110352 0.362365722656 0.5
249 1 0.760116577148 0.36213684082 0.5
250 1 0.761779785156 0.361968994141 0.5
251 1 0.763458251953 0.362075805664 0.5
252 1 0.76513671875 0.362396240234 0.5
253 1 0.76676940918 0.362716674805 0.5
254 1 0.768295288086 0.363265991211 0.5
255 1 0.769790649414 0.364028930664 0.5
256 1 0.771331787109 0.36457824707 0.5
257 1 0.772735595703 0.365371704102 0.5
258 1 0.774261474609 0.365997314453 0.5
259 1 0.775695800781 0.366821289062 0.5
260 1 0.777191162109 0.367553710938 0.5
261 1 0.778533935547 0.368545532227 0.5
262 1 0.779815673828 0.369537353516 0.5
263 1 0.781219482422 0.370513916016 0.5
264 1 0.782379150391 0.371627807617 0.5
265 1 0.783599853516 0.372787475586 0.5
266 1 0.784805297852 0.373931884766 0.5
267 1 0.785980224609 0.375076293945 0.5
268 1 0.787246704102 0.376159667969 0.5
269 1 0.788360595703 0.377456665039 0.5
270 1 0.789016723633 0.378997802734 0.5
271 1 0.789886474609 0.380416870117 0.5
272 1 0.790832519531 0.381713867188 0.5
273 1 0.791595458984 0.383239746094 0.5
274 1 0.792251586914 0.384750366211 0.5
275 1 0.792831420898 0.386352539062 0.5
276 1 0.793563842773 0.387878417969 0.5
277 1 0.794021606445 0.38948059082 0.5
278 1 0.794097900391 0.391128540039 0.5
279 1 0.793914794922 0.39274597168 0.5
280 1 0.793319702148 0.394287109375 0.5
281 1 0.792846679688 0.395874023438 0.5
282 1 0.792556762695 0.397552490234 0.5
283 1 0.792358398438 0.399200439453 0.5
284 1 0.792205810547 0.400909423828 0.5
285 1 0.791702270508 0.402496337891 0.5
286 1 0.790649414062 0.403778076172 0.5
287 1 0.78971862793 0.405120849609 0.5
288 1 0.788314819336 0.405944824219 0.5
289 1 0.787109375 0.407089233398 0.5
290 1 0.785827636719 0.408157348633 0.5
291 1 0.784515380859 0.409164428711 0.5
292 1 0.783050537109 0.409927368164 0.5
293 1 0.781616210938 0.410751342773 0.5
294 1 0.780197143555 0.411575317383 0.5
295 1 0.778778076172 0.412368774414 0.5
296 1 0.77734375 0.413177490234 0.5
297 1 0.775909423828 0.414093017578 0.5
298 1 0.774459838867 0.414993286133 0.5
299 1 0.773162841797 0.416000366211 0.5
300 1 0.771820068359 0.417053222656 0.5
301 1 0.772674560547 0.881576538086 0.5
302 1 0.774154663086 0.882354736328 0.5
303 1 0.775604248047 0.883193969727 0.5
304 1 0.776901245117 0.884292602539 0.5
305 1 0.777908325195 0.885696411133 0.5
306 1 0.778549194336 0.887130737305 0.5
307 1 0.779174804688 0.888717651367 0.5
308 1 0.780029296875 0.890228271484 0.5
309 1 0.780792236328 0.891708374023 0.5
310 1 0.78125 0.893264770508 0.5
311 1 0.781616210938 0.894866943359 0.5
312 1 0.781936645508 0.896484375 0.5
313 1 0.782440185547 0.898056030273 0.5
314 1 0.78288269043 0.899642944336 0.5
315 1 0.78352355957 0.901229858398 0.5
316 1 0.784423828125 0.902633666992 0.5
317 1 0.785415649414 0.903961181641 0.5
318 1 0.786315917969 0.905319213867 0.5
319 1 0.78759765625 0.906341552734 0.5
320 1 0.788864135742 0.907440185547 0.5
321 1 0.790252685547 0.908386230469 0.5
322 1 0.791580200195 0.909423828125 0.5
323 1 0.792739868164 0.910583496094 0.5
324 1 0.793930053711 0.911773681641 0.5
325 1 0.795150756836 0.912948608398 0.5
326 1 0.796356201172 0.914123535156 0.5
327 1 0.797424316406 0.915390014648 0.5
328 1 0.798431396484 0.916748046875 0.5
329 1 0.79948425293 0.918060302734 0.5
330 1 0.800811767578 0.919036865234 0.5
331 1 0.801956176758 0.920211791992 0.5
332 1 0.802963256836 0.921615600586 0.5
333 1 0.804275512695 0.922637939453 0.5
334 1 0.805816650391 0.923217773438 0.5
335 1 0.807388305664 0.923797607422 0.5
336 1 0.808822631836 0.924621582031 0.5
337 1 0.810012817383 0.925750732422 0.5
338 1 0.811233520508 0.926910400391 0.5
339 1 0.812606811523 0.927871704102 0.5
340 1 0.814056396484 0.928634643555 0.5
341 1 0.815414428711 0.92951965332 0.5
342 1 0.816925048828 0.930191040039 0.5
343 1 0.818572998047 0.930480957031 0.5
344 1 0.820220947266 0.93083190918 0.5
345 1 0.821868896484 0.931137084961 0.5
346 1 0.823440551758 0.931655883789 0.5
347 1 0.825042724609 0.932113647461 0.5
348 1 0.826583862305 0.932647705078 0.5
349 1 0.828125 0.933334350586 0.5
350 1 0.829391479492 0.934371948242 0.5
351 1 0.830688476562 0.935424804688 0.5
352 1 0.832290649414 0.935882568359 0.5
353 1 0.833969116211 0.935974121094 0.5
354 1 0.83561706543 0.93635559082 0.5
355 1 0.83723449707 0.936508178711 0.5
356 1 0.838836669922 0.936935424805 0.5
357 1 0.840240478516 0.93782043457 0.5
358 1 0.841415405273 0.93896484375 0.5
359 1 0.842651367188 0.940093994141 0.5
360 1 0.843612670898 0.941436767578 0.5
361 1 0.84455871582 0.942810058594 0.5
362 1 0.845291137695 0.944305419922 0.5
363 1 0.846145629883 0.945709228516 0.5
364 1 0.846603393555 0.947326660156 0.5
365 1 0.84733581543 0.948852539062 0.5
366 1 0.84782409668 0.950500488281 0.5
367 1 0.847915649414 0.952117919922 0.5
368 1 0.848114013672 0.953765869141 0.5
369 1 0.848114013672 0.955444335938 0.5
370 1 0.848678588867 0.957046508789 0.5
371 1 0.849349975586 0.958572387695 0.5
372 1 0.849761962891 0.960174560547 0.5
373 1 0.850524902344 0.961654663086 0.5
374 1 0.851287841797 0.963134765625 0.5
375 1 0.851821899414 0.964706420898 0.5
376 1 0.764465332031 0.727249145508 0.5
377 1 0.765686035156 0.726119995117 0.5
378 1 0.766830444336 0.724868774414 0.5
379 1 0.768020629883 0.723678588867 0.5
380 1 0.769409179688 0.722702026367 0.5
381 1 0.770736694336 0.721603393555 0.5
382 1 0.771575927734 0.72021484375 0.5
383 1 0.772354125977 0.718734741211 0.5
384 1 0.772735595703 0.71711730957 0.5
385 1 0.773193359375 0.715530395508 0.5
386 1 0.773468017578 0.713882446289 0.5
387 1 0.773834228516 0.712265014648 0.5
388 1 0.774124145508 0.710601806641 0.5
389 1 0.774291992188 0.708953857422 0.5
390 1 0.774597167969 0.70735168457 0.5
391 1 0.775085449219 0.705764770508 0.5
392 1 0.775573730469 0.704177856445 0.5
393 1 0.776260375977 0.702682495117 0.5
394 1 0.77717590332 0.701278686523 0.5
395 1 0.777908325195 0.699768066406 0.5
396 1 0.778686523438 0.698257446289 0.5
397 1 0.779632568359 0.696899414062 0.5
398 1 0.780746459961 0.695541381836 0.5
399 1 0.781784057617 0.694274902344 0.5
400 1 0.782928466797 0.693115234375 0.5
401 1 0.784118652344 0.69189453125 0.5
402 1 0.785385131836 0.690811157227 0.5
403 1 0.786560058594 0.689682006836 0.5
404 1 0.787994384766 0.688934326172 0.5
405 1 0.789169311523 0.68782043457 0.5
406 1 0.790328979492 0.686676025391 0.5
407 1 0.791381835938 0.685440063477 0.5
408 1 0.792266845703 0.684066772461 0.5
409 1 0.793090820312 0.6826171875 0.5
410 1 0.794006347656 0.681213378906 0.5
411 1 0.795043945312 0.679824829102 0.5
412 1 0.795959472656 0.678421020508 0.5
413 1 0.796966552734 0.67707824707 0.5
414 1 0.798095703125 0.675872802734 0.5
415 1 0.799438476562 0.674819946289 0.5
416 1 0.80078125 0.673873901367 0.5
417 1 0.802185058594 0.673034667969 0.5
418 1 0.803771972656 0.67253112793 0.5
419 1 0.805297851562 0.671813964844 0.5
420 1 0.80680847168 0.671127319336 0.5
421 1 0.808410644531 0.670669555664 0.5
422 1 0.809997558594 0.670166015625 0.5
423 1 0.811492919922 0.669357299805 0.5
424 1 0.812973022461 0.668640136719 0.5
425 1 0.814529418945 0.668075561523 0.5
426 1 0.81608581543 0.667388916016 0.5
427 1 0.817581176758 0.666732788086 0.5
428 1 0.818923950195 0.66569519043 0.5
429 1 0.820404052734 0.664947509766 0.5
430 1 0.821746826172 0.663986206055 0.5
431 1 0.823196411133 0.663238525391 0.5
432 1 0.824615478516 0.662353515625 0.5
433 1 0.826080322266 0.661590576172 0.5
434 1 0.827407836914 0.660537719727 0.5
435 1 0.828872680664 0.65983581543 0.5
436 1 0.830459594727 0.659271240234 0.5
437 1 0.832000732422 0.658706665039 0.5
438 1 0.833435058594 0.657897949219 0.5
439 1 0.834869384766 0.657028198242 0.5
440 1 0.836212158203 0.656097412109 0.5
441 1 0.837631225586 0.655349731445 0.5
442 1 0.839111328125 0.654663085938 0.5
443 1 0.840698242188 0.654159545898 0.5
444 1 0.842376708984 0.653869628906 0.5
445 1 0.843963623047 0.65348815918 0.5
446 1 0.845611572266 0.65299987793 0.5
447 1 0.847259521484 0.652847290039 0.5
448 1 0.848922729492 0.652572631836 0.5
449 1 0.850540161133 0.652160644531 0.5
450 1 0.852203369141 0.652008056641 0.5
451 1 0.53044128418 0.253997802734 0.5
452 1 0.530471801758 0.255645751953 0.5
453 1 0.5302734375 0.257278442383 0.5
454 1 0.530166625977 0.258911132812 0.5
455 1 0.530136108398 0.260528564453 0.5
456 1 0.530242919922 0.262191772461 0.5
457 1 0.530303955078 0.263885498047 0.5
458 1 0.530319213867 0.265579223633 0.5
459 1 0.5302734375 0.267211914062 0.5
460 1 0.530578613281 0.26887512207 0.5
461 1 0.53108215332 0.2705078125 0.5
462 1 0.531341552734 0.272125244141 0.5
463 1 0.531494140625 0.273773193359 0.5
464 1 0.53205871582 0.275360107422 0.5
465 1 0.532669067383 0.276885986328 0.5
466 1 0.533782958984 0.278167724609 0.5
467 1 0.534652709961 0.279647827148 0.5
468 1 0.535354614258 0.281143188477 0.5
469 1 0.536148071289 0.282699584961 0.5
470 1 0.536911010742 0.2841796875 0.5
471 1 0.537551879883 0.285720825195 0.5
472 1 0.538467407227 0.287155151367 0.5
473 1 0.539443969727 0.288482666016 0.5
474 1 0.540267944336 0.289993286133 0.5
475 1 0.54084777832 0.291519165039 0.5
476 1 0.541305541992 0.293121337891 0.5
477 1 0.541961669922 0.294647216797 0.5
478 1 0.542816162109 0.29606628418 0.5
479 1 0.543655395508 0.297500610352 0.5
480 1 0.544357299805 0.299041748047 0.5
481 1 0.545333862305 0.300399780273 0.5
482 1 0.546188354492 0.301834106445 0.5
483 1 0.547485351562 0.302871704102 0.5
484 1 0.548767089844 0.303970336914 0.5
485 1 0.549942016602 0.305130004883 0.5
486 1 0.551406860352 0.305999755859 0.5
487 1 0.552947998047 0.306671142578 0.5
488 1 0.554428100586 0.307479858398 0.5
489 1 0.556015014648 0.308044433594 0.5
490 1 0.557464599609 0.308792114258 0.5
491 1 0.558975219727 0.309448242188 0.5
492 1 0.560317993164 0.310409545898 0.5
493 1 0.561767578125 0.311172485352 0.5
494 1 0.563095092773 0.312240600586 0.5
495 1 0.564224243164 0.313430786133 0.5
496 1 0.565383911133 0.314697265625 0.5
497 1 0.566696166992 0.315719604492 0.5
498 1 0.568130493164 0.316635131836 0.5
499 1 0.569381713867 0.317687988281 0.5
500 1 0.570755004883 0.318649291992 0.5
501 1 0.572189331055 0.319549560547 0.5
502 1 0.573501586914 0.32048034668 0.5
503 1 0.574676513672 0.321640014648 0.5
504 1 0.575958251953 0.322692871094 0.5
505 1 0.577239990234 0.323745727539 0.5
506 1 0.578552246094 0.324676513672 0.5
507 1 0.579879760742 0.325653076172 0.5
508 1 0.581298828125 0.326477050781 0.5
509 1 0.582733154297 0.327301025391 0.5
510 1 0.584136962891 0.328231811523 0.5
511 1 0.585556030273 0.329162597656 0.5
512 1 0.58674621582 0.330322265625 0.5
513 1 0.587646484375 0.331756591797 0.5
514 1 0.58854675293 0.333221435547 0.5
515 1 0.589477539062 0.334579467773 0.5
516 1 0.590286254883 0.336013793945 0.5
517 1 0.591049194336 0.337539672852 0.5
518 1 0.591751098633 0.33903503418 0.5
519 1 0.592590332031 0.340454101562 0.5
520 1 0.593780517578 0.341690063477 0.5
521 1 0.5947265625 0.343078613281 0.5
522 1 0.595764160156 0.344436645508 0.5
523 1 0.596542358398 0.345916748047 0.5
524 1 0.59716796875 0.347427368164 0.5
525 1 0.597808837891 0.34895324707 0.5
526 1 0.639404296875 0.897369384766 0.5
527 1 0.637832641602 0.896774291992 0.5
528 1 0.636306762695 0.89616394043 0.5
529 1 0.634613037109 0.895812988281 0.5
530 1 0.633087158203 0.895111083984 0.5
531 1 0.631484985352 0.894744873047 0.5
532 1 0.629821777344 0.894607543945 0.5
533 1 0.628219604492 0.89436340332 0.5
534 1 0.626525878906 0.894302368164 0.5
535 1 0.624847412109 0.89436340332 0.5
536 1 0.623229980469 0.894073486328 0.5
537 1 0.621627807617 0.893890380859 0.5
538 1 0.620010375977 0.893508911133 0.5
539 1 0.618423461914 0.893112182617 0.5
540 1 0.616744995117 0.893035888672 0.5
541 1 0.615097045898 0.893203735352 0.5
542 1 0.613418579102 0.893356323242 0.5
543 1 0.611846923828 0.893859863281 0.5
544 1 0.610214233398 0.894317626953 0.5
545 1 0.60856628418 0.894607543945 0.5
546 1 0.606979370117 0.894866943359 0.5
547 1 0.60530090332 0.895217895508 0.5
548 1 0.603744506836 0.895767211914 0.5
549 1 0.602233886719 0.896453857422 0.5
550 1 0.600646972656 0.896957397461 0.5
551 1 0.59912109375 0.897583007812 0.5
552 1 0.597625732422 0.898147583008 0.5
553 1 0.595993041992 0.898712158203 0.5
554 1 0.594299316406 0.898666381836 0.5
555 1 0.592636108398 0.899002075195 0.5
556 1 0.591049194336 0.899337768555 0.5
557 1 0.58952331543 0.900054931641 0.5
558 1 0.587921142578 0.900451660156 0.5
559 1 0.586303710938 0.900756835938 0.5
560 1 0.584655761719 0.901016235352 0.5
561 1 0.582992553711 0.901138305664 0.5
562 1 0.581283569336 0.901321411133 0.5
563 1 0.579605102539 0.901351928711 0.5
564 1 0.577911376953 0.901443481445 0.5
565 1 0.576324462891 0.901748657227 0.5
566 1 0.574661254883 0.902114868164 0.5
567 1 0.572982788086 0.902191162109 0.5
568 1 0.571304321289 0.902328491211 0.5
569 1 0.569641113281 0.902542114258 0.5
570 1 0.567932128906 0.902603149414 0.5
571 1 0.566268920898 0.902542114258 0.5
572 1 0.564605712891 0.902709960938 0.5
573 1 0.562927246094 0.902908325195 0.5
574 1 0.561309814453 0.902938842773 0.5
575 1 0.559646606445 0.902877807617 0.5
576 1 0.558059692383 0.902404785156 0.5
577 1 0.556457519531 0.902069091797 0.5
578 1 0.554901123047 0.901473999023 0.5
579 1 0.553298950195 0.901092529297 0.5
580 1 0.551681518555 0.900650024414 0.5
581 1 0.550094604492 0.900085449219 0.5
582 1 0.548583984375 0.899505615234 0.5
583 1 0.546997070312 0.899047851562 0.5
584 1 0.545425415039 0.898483276367 0.5
585 1 0.54377746582 0.898147583008 0.5
586 1 0.542190551758 0.897613525391 0.5
587 1 0.540664672852 0.89697265625 0.5
588 1 0.539169311523 0.896270751953 0.5
589 1 0.537841796875 0.895294189453 0.5
590 1 0.536392211914 0.894424438477 0.5
591 1 0.535202026367 0.893280029297 0.5
592 1 0.533828735352 0.89241027832 0.5
593 1 0.532440185547 0.89143371582 0.5
594 1 0.531539916992 0.890029907227 0.5
595 1 0.530670166016 0.888610839844 0.5
596 1 0.52946472168 0.887420654297 0.5
597 1 0.528091430664 0.886474609375 0.5
598 1 0.52668762207 0.885589599609 0.5
599 1 0.525161743164 0.884918212891 0.5
600 1 0.523620605469 0.884216308594 0.5
601 1 0.420059204102 0.623641967773 0.5
602 1 0.419891357422 0.625289916992 0.5
603 1 0.419555664062 0.626876831055 0.5
604 1 0.419296264648 0.628570556641 0.5
605 1 0.418884277344 0.630233764648 0.5
606 1 0.418518066406 0.631881713867 0.5
607 1 0.417770385742 0.633316040039 0.5
608 1 0.416717529297 0.634613037109 0.5
609 1 0.415496826172 0.635757446289 0.5
610 1 0.414123535156 0.636734008789 0.5
611 1 0.412628173828 0.637344360352 0.5
612 1 0.411056518555 0.637924194336 0.5
613 1 0.409454345703 0.638458251953 0.5
614 1 0.407821655273 0.638290405273 0.5
615 1 0.406265258789 0.637756347656 0.5
616 1 0.404632568359 0.63737487793 0.5
617 1 0.403060913086 0.636962890625 0.5
618 1 0.401504516602 0.636322021484 0.5
619 1 0.400054931641 0.635467529297 0.5
620 1 0.398696899414 0.634552001953 0.5
621 1 0.397216796875 0.633728027344 0.5
622 1 0.395843505859 0.632736206055 0.5
623 1 0.394668579102 0.631530761719 0.5
624 1 0.393844604492 0.630096435547 0.5
625 1 0.392837524414 0.62873840332 0.5
626 1 0.391906738281 0.627304077148 0.5
627 1 0.390975952148 0.625946044922 0.5
628 1 0.389938354492 0.624618530273 0.5
629 1 0.388671875 0.62353515625 0.5
630 1 0.387466430664 0.622375488281 0.5
631 1 0.386474609375 0.621032714844 0.5
632 1 0.385620117188 0.61962890625 0.5
633 1 0.38493347168 0.618148803711 0.5
634 1 0.384323120117 0.616638183594 0.5
635 1 0.383682250977 0.615142822266 0.5
636 1 0.38313293457 0.613586425781 0.5
637 1 0.38264465332 0.612060546875 0.5
638 1 0.382141113281 0.610443115234 0.5
639 1 0.381744384766 0.608840942383 0.5
640 1 0.38151550293 0.607162475586 0.5
641 1 0.381149291992 0.605529785156 0.5
642 1 0.380935668945 0.603942871094 0.5
643 1 0.380233764648 0.602447509766 0.5
644 1 0.37971496582 0.600891113281 0.5
645 1 0.379318237305 0.599304199219 0.5
646 1 0.378677368164 0.597717285156 0.5
647 1 0.377975463867 0.596206665039 0.5
648 1 0.377578735352 0.594650268555 0.5
649 1 0.377151489258 0.593002319336 0.5
650 1 0.376602172852 0.591400146484 0.5
651 1 0.376159667969 0.589797973633 0.5
652 1 0.375350952148 0.588302612305 0.5
653 1 0.374526977539 0.586822509766 0.5
654 1 0.373794555664 0.585311889648 0.5
655 1 0.37353515625 0.583648681641 0.5
656 1 0.37321472168 0.58203125 0.5
657 1 0.372512817383 0.580520629883 0.5
658 1 0.371810913086 0.578994750977 0.5
659 1 0.371063232422 0.577529907227 0.5
660 1 0.3701171875 0.576156616211 0.5
661 1 0.369094848633 0.574890136719 0.5
662 1 0.368453979492 0.573394775391 0.5
663 1 0.367767333984 0.571868896484 0.5
664 1 0.367294311523 0.570281982422 0.5
665 1 0.366683959961 0.568740844727 0.5
666 1 0.366333007812 0.567092895508 0.5
667 1 0.366180419922 0.565399169922 0.5
668 1 0.366516113281 0.563781738281 0.5
669 1 0.366836547852 0.562118530273 0.5
670 1 0.366958618164 0.560455322266 0.5
671 1 0.367294311523 0.558822631836 0.5
672 1 0.367980957031 0.557327270508 0.5
673 1 0.368759155273 0.555862426758 0.5
674 1 0.369430541992 0.554351806641 0.5
675 1 0.369827270508 0.552719116211 0.5
676 1 0.473159790039 0.490783691406 0.5
677 1 0.471664428711 0.491470336914 0.5
678 1 0.470108032227 0.492095947266 0.5
679 1 0.468566894531 0.492736816406 0.5
680 1 0.467269897461 0.493743896484 0.5
681 1 0.465774536133 0.494415283203 0.5
682 1 0.464080810547 0.494583129883 0.5
683 1 0.462432861328 0.494537353516 0.5
684 1 0.460815429688 0.494079589844 0.5
685 1 0.459259033203 0.493499755859 0.5
686 1 0.457733154297 0.492874145508 0.5
687 1 0.456161499023 0.492340087891 0.5
688 1 0.454605102539 0.491744995117 0.5
689 1 0.453063964844 0.491088867188 0.5
690 1 0.451583862305 0.490295410156 0.5
691 1 0.450164794922 0.489395141602 0.5
692 1 0.448837280273 0.488418579102 0.5
693 1 0.447326660156 0.487701416016 0.5
694 1 0.445831298828 0.487075805664 0.5
695 1 0.444229125977 0.486633300781 0.5
696 1 0.442718505859 0.485900878906 0.5
697 1 0.441299438477 0.485061645508 0.5
698 1 0.439804077148 0.484313964844 0.5
699 1 0.438278198242 0.483581542969 0.5
700 1 0.436660766602 0.483261108398 0.5
701 1 0.435043334961 0.482955932617 0.5
702 1 0.433364868164 0.482940673828 0.5
703 1 0.431701660156 0.482864379883 0.5
704 1 0.430084228516 0.482757568359 0.5
705 1 0.428482055664 0.482421875 0.5
706 1 0.426818847656 0.482269287109 0.5
707 1 0.425140380859 0.481887817383 0.5
708 1 0.423583984375 0.48127746582 0.5
709 1 0.422180175781 0.480377197266 0.5
710 1 0.420684814453 0.479568481445 0.5
711 1 0.419097900391 0.478988647461 0.5
712 1 0.417465209961 0.478637695312 0.5
713 1 0.415832519531 0.478271484375 0.5
714 1 0.414169311523 0.477920532227 0.5
715 1 0.412628173828 0.477310180664 0.5
716 1 0.411010742188 0.476989746094 0.5
717 1 0.409408569336 0.476608276367 0.5
718 1 0.407775878906 0.47688293457 0.5
719 1 0.406173706055 0.477325439453 0.5
720 1 0.404556274414 0.477630615234 0.5
721 1 0.403030395508 0.47834777832 0.5
722 1 0.401611328125 0.479232788086 0.5
723 1 0.400390625 0.480331420898 0.5
724 1 0.399627685547 0.481826782227 0.5
725 1 0.399383544922 0.483505249023 0.5
726 1 0.399536132812 0.485214233398 0.5
727 1 0.399917602539 0.486846923828 0.5
728 1 0.400741577148 0.488342285156 0.5
729 1 0.401870727539 0.489532470703 0.5
730 1 0.403137207031 0.490570068359 0.5
731 1 0.404357910156 0.491775512695 0.5
732 1 0.406005859375 0.4921875 0.5
733 1 0.407623291016 0.492523193359 0.5
734 1 0.409271240234 0.492752075195 0.5
735 1 0.41096496582 0.492889404297 0.5
736 1 0.412628173828 0.492767333984 0.5
737 1 0.414306640625 0.492645263672 0.5
738 1 0.415985107422 0.492553710938 0.5
739 1 0.417633056641 0.492340087891 0.5
740 1 0.41926574707 0.492584228516 0.5
741 1 0.420944213867 0.492935180664 0.5
742 1 0.422454833984 0.493560791016 0.5
743 1 0.423797607422 0.494522094727 0.5
744 1 0.425277709961 0.495239257812 0.5
745 1 0.426849365234 0.495803833008 0.5
746 1 0.42839050293 0.496398925781 0.5
747 1 0.429977416992 0.496932983398 0.5
748 1 0.431533813477 0.497451782227 0.5
749 1 0.433181762695 0.497650146484 0.5
750 1 0.434814453125 0.497985839844 0.5