ITEM: TIMESTEP
0
ITEM: NUMBER OF ATOMS
1800
ITEM: BOX BOUNDS pp pp pp
-28.75 107.482274946
-10.0 256.98593171
-5 5
ITEM: ATOMS id type xs ys zs
1 1 0.211036628519 0.0374551570412 0.5
2 1 0.218377032989 0.0374551570412 0.5
3 1 0.225717437459 0.0374551570412 0.5
4 1 0.233057841929 0.0374551570412 0.5
5 1 0.240398246399 0.0374551570412 0.5
6 1 0.24773865087 0.0374551570412 0.5
7 1 0.25507905534 0.0374551570412 0.5
8 1 0.26241945981 0.0374551570412 0.5
9 1 0.26975986428 0.0374551570412 0.5
10 1 0.277100268751 0.0374551570412 0.5
11 1 0.284440673221 0.0374551570412 0.5
12 1 0.291781077691 0.0374551570412 0.5
13 1 0.299121482161 0.0374551570412 0.5
14 1 0.306461886631 0.0374551570412 0.5
15 1 0.313802291102 0.0374551570412 0.5
16 1 0.321142695572 0.0374551570412 0.5
17 1 0.328483100042 0.0374551570412 0.5
18 1 0.335823504512 0.0374551570412 0.5
19 1 0.343163908982 0.0374551570412 0.5
20 1 0.350504313453 0.0374551570412 0.5
21 1 0.357844717923 0.0374551570412 0.5
22 1 0.365185122393 0.0374551570412 0.5
23 1 0.372525526863 0.0374551570412 0.5
24 1 0.379865931333 0.0374551570412 0.5
25 1 0.387206335804 0.0374551570412 0.5
26 1 0.394546740274 0.0374551570412 0.5
27 1 0.401887144744 0.0374551570412 0.5
28 1 0.409227549214 0.0374551570412 0.5
29 1 0.416567953685 0.0374551570412 0.5
30 1 0.423908358155 0.0374551570412 0.5
31 1 0.431248762625 0.0374551570412 0.5
32 1 0.438589167095 0.0374551570412 0.5
33 1 0.445929571565 0.0374551570412 0.5
34 1 0.453269976036 0.0374551570412 0.5
35 1 0.460610380506 0.0374551570412 0.5
36 1 0.467950784976 0.0374551570412 0.5
37 1 0.475291189446 0.0374551570412 0.5
38 1 0.482631593916 0.0374551570412 0.5
39 1 0.489971998387 0.0374551570412 0.5
40 1 0.497312402857 0.0374551570412 0.5
41 1 0.504652807327 0.0374551570412 0.5
42 1 0.511993211797 0.0374551570412 0.5
43 1 0.519333616268 0.0374551570412 0.5
44 1 0.526674020738 0.0374551570412 0.5
45 1 0.534014425208 0.0374551570412 0.5
46 1 0.541354829678 0.0374551570412 0.5
47 1 0.548695234148 0.0374551570412 0.5
48 1 0.556035638619 0.0374551570412 0.5
49 1 0.563376043089 0.0374551570412 0.5
50 1 0.570716447559 0.0374551570412 0.5
51 1 0.578056852029 0.0374551570412 0.5
52 1 0.585397256499 0.0374551570412 0.5
53 1 0.59273766097 0.0374551570412 0.5
54 1 0.60007806544 0.0374551570412 0.5
55 1 0.60741846991 0.0374551570412 0.5
56 1 0.61475887438 0.0374551570412 0.5
57 1 0.622099278851 0.0374551570412 0.5
58 1 0.629439683321 0.0374551570412 0.5
59 1 0.636780087791 0.0374551570412 0.5
60 1 0.644120492261 0.0374551570412 0.5
61 1 0.651460896731 0.0374551570412 0.5
62 1 0.658801301202 0.0374551570412 0.5
63 1 0.666141705672 0.0374551570412 0.5
64 1 0.673482110142 0.0374551570412 0.5
65 1 0.680822514612 0.0374551570412 0.5
66 1 0.688162919082 0.0374551570412 0.5
67 1 0.695503323553 0.0374551570412 0.5
68 1 0.702843728023 0.0374551570412 0.5
69 1 0.710184132493 0.0374551570412 0.5
70 1 0.717524536963 0.0374551570412 0.5
71 1 0.724864941433 0.0374551570412 0.5
72 1 0.732205345904 0.0374551570412 0.5
73 1 0.739545750374 0.0374551570412 0.5
74 1 0.746886154844 0.0374551570412 0.5
75 1 0.754226559314 0.0374551570412 0.5
76 1 0.211036628519 0.0412006727453 0.5
77 1 0.218377032989 0.0412006727453 0.5
78 1 0.225717437459 0.0412006727453 0.5
79 1 0.233057841929 0.0412006727453 0.5
80 1 0.240398246399 0.0412006727453 0.5
81 1 0.24773865087 0.0412006727453 0.5
82 1 0.25507905534 0.0412006727453 0.5
83 1 0.26241945981 0.0412006727453 0.5
84 1 0.26975986428 0.0412006727453 0.5
85 1 0.277100268751 0.0412006727453 0.5
86 1 0.284440673221 0.0412006727453 0.5
87 1 0.291781077691 0.0412006727453 0.5
88 1 0.299121482161 0.0412006727453 0.5
89 1 0.306461886631 0.0412006727453 0.5
90 1 0.313802291102 0.0412006727453 0.5
91 1 0.321142695572 0.0412006727453 0.5
92 1 0.328483100042 0.0412006727453 0.5
93 1 0.335823504512 0.0412006727453 0.5
94 1 0.343163908982 0.0412006727453 0.5
95 1 0.350504313453 0.0412006727453 0.5
96 1 0.357844717923 0.0412006727453 0.5
97 1 0.365185122393 0.0412006727453 0.5
98 1 0.372525526863 0.0412006727453 0.5
99 1 0.379865931333 0.0412006727453 0.5
100 1 0.387206335804 0.0412006727453 0.5
101 1 0.394546740274 0.0412006727453 0.5
102 1 0.401887144744 0.0412006727453 0.5
103 1 0.409227549214 0.0412006727453 0.5
104 1 0.416567953685 0.0412006727453 0.5
105 1 0.423908358155 0.0412006727453 0.5
106 1 0.431248762625 0.0412006727453 0.5
107 1 0.438589167095 0.0412006727453 0.5
108 1 0.445929571565 0.0412006727453 0.5
109 1 0.453269976036 0.0412006727453 0.5
110 1 0.460610380506 0.0412006727453 0.5
111 1 0.467950784976 0.0412006727453 0.5
112 1 0.475291189446 0.0412006727453 0.5
113 1 0.482631593916 0.0412006727453 0.5
114 1 0.489971998387 0.0412006727453 0.5
115 1 0.497312402857 0.0412006727453 0.5
116 1 0.504652807327 0.0412006727453 0.5
117 1 0.511993211797 0.0412006727453 0.5
118 1 0.519333616268 0.0412006727453 0.5
119 1 0.526674020738 0.0412006727453 0.5
120 1 0.534014425208 0.0412006727453 0.5
121 1 0.541354829678 0.0412006727453 0.5
122 1 0.548695234148 0.0412006727453 0.5
123 1 0.556035638619 0.0412006727453 0.5
124 1 0.563376043089 0.0412006727453 0.5
125 1 0.570716447559 0.0412006727453 0.5
126 1 0.578056852029 0.0412006727453 0.5
127 1 0.585397256499 0.0412006727453 0.5
128 1 0.59273766097 0.0412006727453 0.5
129 1 0.60007806544 0.0412006727453 0.5
130 1 0.60741846991 0.0412006727453 0.5
131 1 0.61475887438 0.0412006727453 0.5
132 1 0.622099278851 0.0412006727453 0.5
133 1 0.629439683321 0.0412006727453 0.5
134 1 0.636780087791 0.0412006727453 0.5
135 1 0.644120492261 0.0412006727453 0.5
136 1 0.651460896731 0.0412006727453 0.5
137 1 0.658801301202 0.0412006727453 0.5
138 1 0.666141705672 0.0412006727453 0.5
139 1 0.673482110142 0.0412006727453 0.5
140 1 0.680822514612 0.0412006727453 0.5
141 1 0.688162919082 0.0412006727453 0.5
142 1 0.695503323553 0.0412006727453 0.5
143 1 0.702843728023 0.0412006727453 0.5
144 1 0.710184132493 0.0412006727453 0.5
145 1 0.717524536963 0.0412006727453 0.5
146 1 0.724864941433 0.0412006727453 0.5
147 1 0.732205345904 0.0412006727453 0.5
148 1 0.739545750374 0.0412006727453 0.5
149 1 0.746886154844 0.0412006727453 0.5
150 1 0.754226559314 0.0412006727453 0.5
151 1 0.211036628519 0.0749103140824 0.5
152 1 0.214706830754 0.0749103140824 0.5
153 1 0.218377032989 0.0749103140824 0.5
154 1 0.222047235224 0.0749103140824 0.5
155 1 0.225717437459 0.0749103140824 0.5
156 1 0.229387639694 0.0749103140824 0.5
157 1 0.233057841929 0.0749103140824 0.5
158 1 0.236728044164 0.0749103140824 0.5
159 1 0.240398246399 0.0749103140824 0.5
160 1 0.244068448635 0.0749103140824 0.5
161 1 0.24773865087 0.0749103140824 0.5
162 1 0.251408853105 0.0749103140824 0.5
163 1 0.25507905534 0.0749103140824 0.5
164 1 0.258749257575 0.0749103140824 0.5
165 1 0.26241945981 0.0749103140824 0.5
166 1 0.266089662045 0.0749103140824 0.5
167 1 0.26975986428 0.0749103140824 0.5
168 1 0.273430066515 0.0749103140824 0.5
169 1 0.277100268751 0.0749103140824 0.5
170 1 0.280770470986 0.0749103140824 0.5
171 1 0.284440673221 0.0749103140824 0.5
172 1 0.288110875456 0.0749103140824 0.5
173 1 0.291781077691 0.0749103140824 0.5
174 1 0.295451279926 0.0749103140824 0.5
175 1 0.299121482161 0.0749103140824 0.5
176 1 0.302791684396 0.0749103140824 0.5
177 1 0.306461886631 0.0749103140824 0.5
178 1 0.310132088866 0.0749103140824 0.5
179 1 0.313802291102 0.0749103140824 0.5
180 1 0.317472493337 0.0749103140824 0.5
181 1 0.321142695572 0.0749103140824 0.5
182 1 0.324812897807 0.0749103140824 0.5
183 1 0.328483100042 0.0749103140824 0.5
184 1 0.332153302277 0.0749103140824 0.5
185 1 0.335823504512 0.0749103140824 0.5
186 1 0.339493706747 0.0749103140824 0.5
187 1 0.343163908982 0.0749103140824 0.5
188 1 0.346834111218 0.0749103140824 0.5
189 1 0.350504313453 0.0749103140824 0.5
190 1 0.354174515688 0.0749103140824 0.5
191 1 0.357844717923 0.0749103140824 0.5
192 1 0.361514920158 0.0749103140824 0.5
193 1 0.365185122393 0.0749103140824 0.5
194 1 0.368855324628 0.0749103140824 0.5
195 1 0.372525526863 0.0749103140824 0.5
196 1 0.376195729098 0.0749103140824 0.5
197 1 0.379865931333 0.0749103140824 0.5
198 1 0.383536133569 0.0749103140824 0.5
199 1 0.387206335804 0.0749103140824 0.5
200 1 0.390876538039 0.0749103140824 0.5
201 1 0.394546740274 0.0749103140824 0.5
202 1 0.398216942509 0.0749103140824 0.5
203 1 0.401887144744 0.0749103140824 0.5
204 1 0.405557346979 0.0749103140824 0.5
205 1 0.409227549214 0.0749103140824 0.5
206 1 0.412897751449 0.0749103140824 0.5
207 1 0.416567953685 0.0749103140824 0.5
208 1 0.42023815592 0.0749103140824 0.5
209 1 0.423908358155 0.0749103140824 0.5
210 1 0.42757856039 0.0749103140824 0.5
211 1 0.431248762625 0.0749103140824 0.5
212 1 0.43491896486 0.0749103140824 0.5
213 1 0.438589167095 0.0749103140824 0.5
214 1 0.44225936933 0.0749103140824 0.5
215 1 0.445929571565 0.0749103140824 0.5
216 1 0.449599773801 0.0749103140824 0.5
217 1 0.453269976036 0.0749103140824 0.5
218 1 0.456940178271 0.0749103140824 0.5
219 1 0.460610380506 0.0749103140824 0.5
220 1 0.464280582741 0.0749103140824 0.5
221 1 0.467950784976 0.0749103140824 0.5
222 1 0.471620987211 0.0749103140824 0.5
223 1 0.475291189446 0.0749103140824 0.5
224 1 0.478961391681 0.0749103140824 0.5
225 1 0.482631593916 0.0749103140824 0.5
226 1 0.211036628519 0.0786558297865 0.5
227 1 0.214706830754 0.0786558297865 0.5
228 1 0.218377032989 0.0786558297865 0.5
229 1 0.222047235224 0.0786558297865 0.5
230 1 0.225717437459 0.0786558297865 0.5
231 1 0.229387639694 0.0786558297865 0.5
232 1 0.233057841929 0.0786558297865 0.5
233 1 0.236728044164 0.0786558297865 0.5
234 1 0.240398246399 0.0786558297865 0.5
235 1 0.244068448635 0.0786558297865 0.5
236 1 0.24773865087 0.0786558297865 0.5
237 1 0.251408853105 0.0786558297865 0.5
238 1 0.25507905534 0.0786558297865 0.5
239 1 0.258749257575 0.0786558297865 0.5
240 1 0.26241945981 0.0786558297865 0.5
241 1 0.266089662045 0.0786558297865 0.5
242 1 0.26975986428 0.0786558297865 0.5
243 1 0.273430066515 0.0786558297865 0.5
244 1 0.277100268751 0.0786558297865 0.5
245 1 0.280770470986 0.0786558297865 0.5
246 1 0.284440673221 0.0786558297865 0.5
247 1 0.288110875456 0.0786558297865 0.5
248 1 0.291781077691 0.0786558297865 0.5
249 1 0.295451279926 0.0786558297865 0.5
250 1 0.299121482161 0.0786558297865 0.5
251 1 0.302791684396 0.0786558297865 0.5
252 1 0.306461886631 0.0786558297865 0.5
253 1 0.310132088866 0.0786558297865 0.5
254 1 0.313802291102 0.0786558297865 0.5
255 1 0.317472493337 0.0786558297865 0.5
256 1 0.321142695572 0.0786558297865 0.5
257 1 0.324812897807 0.0786558297865 0.5
258 1 0.328483100042 0.0786558297865 0.5
259 1 0.332153302277 0.0786558297865 0.5
260 1 0.335823504512 0.0786558297865 0.5
261 1 0.339493706747 0.0786558297865 0.5
262 1 0.343163908982 0.0786558297865 0.5
263 1 0.346834111218 0.0786558297865 0.5
264 1 0.350504313453 0.0786558297865 0.5
265 1 0.354174515688 0.0786558297865 0.5
266 1 0.357844717923 0.0786558297865 0.5
267 1 0.361514920158 0.0786558297865 0.5
268 1 0.365185122393 0.0786558297865 0.5
269 1 0.368855324628 0.0786558297865 0.5
270 1 0.372525526863 0.0786558297865 0.5
271 1 0.376195729098 0.0786558297865 0.5
272 1 0.379865931333 0.0786558297865 0.5
273 1 0.383536133569 0.0786558297865 0.5
274 1 0.387206335804 0.0786558297865 0.5
275 1 0.390876538039 0.0786558297865 0.5
276 1 0.394546740274 0.0786558297865 0.5
277 1 0.398216942509 0.0786558297865 0.5
278 1 0.401887144744 0.0786558297865 0.5
279 1 0.405557346979 0.0786558297865 0.5
280 1 0.409227549214 0.0786558297865 0.5
281 1 0.412897751449 0.0786558297865 0.5
282 1 0.416567953685 0.0786558297865 0.5
283 1 0.42023815592 0.0786558297865 0.5
284 1 0.423908358155 0.0786558297865 0.5
285 1 0.42757856039 0.0786558297865 0.5
286 1 0.431248762625 0.0786558297865 0.5
287 1 0.43491896486 0.0786558297865 0.5
288 1 0.438589167095 0.0786558297865 0.5
289 1 0.44225936933 0.0786558297865 0.5
290 1 0.445929571565 0.0786558297865 0.5
291 1 0.449599773801 0.0786558297865 0.5
292 1 0.453269976036 0.0786558297865 0.5
293 1 0.456940178271 0.0786558297865 0.5
294 1 0.460610380506 0.0786558297865 0.5
295 1 0.464280582741 0.0786558297865 0.5
296 1 0.467950784976 0.0786558297865 0.5
297 1 0.471620987211 0.0786558297865 0.5
298 1 0.475291189446 0.0786558297865 0.5
299 1 0.478961391681 0.0786558297865 0.5
300 1 0.482631593916 0.0786558297865 0.5
301 1 0.211036628519 0.112365471124 0.5
302 1 0.214706830754 0.112365471124 0.5
303 1 0.218377032989 0.112365471124 0.5
304 1 0.222047235224 0.112365471124 0.5
305 1 0.225717437459 0.112365471124 0.5
306 1 0.229387639694 0.112365471124 0.5
307 1 0.233057841929 0.112365471124 0.5
308 1 0.236728044164 0.112365471124 0.5
309 1 0.240398246399 0.112365471124 0.5
310 1 0.244068448635 0.112365471124 0.5
311 1 0.24773865087 0.112365471124 0.5
312 1 0.251408853105 0.112365471124 0.5
313 1 0.25507905534 0.112365471124 0.5
314 1 0.258749257575 0.112365471124 0.5
315 1 0.26241945981 0.112365471124 0.5
316 1 0.266089662045 0.112365471124 0.5
317 1 0.26975986428 0.112365471124 0.5
318 1 0.273430066515 0.112365471124 0.5
319 1 0.277100268751 0.112365471124 0.5
320 1 0.280770470986 0.112365471124 0.5
321 1 0.284440673221 0.112365471124 0.5
322 1 0.288110875456 0.112365471124 0.5
323 1 0.291781077691 0.112365471124 0.5
324 1 0.295451279926 0.112365471124 0.5
325 1 0.299121482161 0.112365471124 0.5
326 1 0.302791684396 0.112365471124 0.5
327 1 0.306461886631 0.112365471124 0.5
328 1 0.310132088866 0.112365471124 0.5
329 1 0.313802291102 0.112365471124 0.5
330 1 0.317472493337 0.112365471124 0.5
331 1 0.321142695572 0.112365471124 0.5
332 1 0.324812897807 0.112365471124 0.5
333 1 0.328483100042 0.112365471124 0.5
334 1 0.332153302277 0.112365471124 0.5
335 1 0.335823504512 0.112365471124 0.5
336 1 0.339493706747 0.112365471124 0.5
337 1 0.343163908982 0.112365471124 0.5
338 1 0.346834111218 0.112365471124 0.5
339 1 0.350504313453 0.112365471124 0.5
340 1 0.354174515688 0.112365471124 0.5
341 1 0.357844717923 0.112365471124 0.5
342 1 0.361514920158 0.112365471124 0.5
343 1 0.365185122393 0.112365471124 0.5
344 1 0.368855324628 0.112365471124 0.5
345 1 0.372525526863 0.112365471124 0.5
346 1 0.376195729098 0.112365471124 0.5
347 1 0.379865931333 0.112365471124 0.5
348 1 0.383536133569 0.112365471124 0.5
349 1 0.387206335804 0.112365471124 0.5
350 1 0.390876538039 0.112365471124 0.5
351 1 0.394546740274 0.112365471124 0.5
352 1 0.398216942509 0.112365471124 0.5
353 1 0.401887144744 0.112365471124 0.5
354 1 0.405557346979 0.112365471124 0.5
355 1 0.409227549214 0.112365471124 0.5
356 1 0.412897751449 0.112365471124 0.5
357 1 0.416567953685 0.112365471124 0.5
358 1 0.42023815592 0.112365471124 0.5
359 1 0.423908358155 0.112365471124 0.5
360 1 0.42757856039 0.112365471124 0.5
361 1 0.431248762625 0.112365471124 0.5
362 1 0.43491896486 0.112365471124 0.5
363 1 0.438589167095 0.112365471124 0.5
364 1 0.44225936933 0.112365471124 0.5
365 1 0.445929571565 0.112365471124 0.5
366 1 0.449599773801 0.112365471124 0.5
367 1 0.453269976036 0.112365471124 0.5
368 1 0.456940178271 0.112365471124 0.5
369 1 0.460610380506 0.112365471124 0.5
370 1 0.464280582741 0.112365471124 0.5
371 1 0.467950784976 0.112365471124 0.5
372 1 0.471620987211 0.112365471124 0.5
373 1 0.475291189446 0.112365471124 0.5
374 1 0.478961391681 0.112365471124 0.5
375 1 0.482631593916 0.112365471124 0.5
376 1 0.486301796152 0.112365471124 0.5
377 1 0.489971998387 0.112365471124 0.5
378 1 0.493642200622 0.112365471124 0.5
379 1 0.497312402857 0.112365471124 0.5
380 1 0.500982605092 0.112365471124 0.5
381 1 0.504652807327 0.112365471124 0.5
382 1 0.508323009562 0.112365471124 0.5
383 1 0.511993211797 0.112365471124 0.5
384 1 0.515663414032 0.112365471124 0.5
385 1 0.519333616268 0.112365471124 0.5
386 1 0.523003818503 0.112365471124 0.5
387 1 0.526674020738 0.112365471124 0.5
388 1 0.530344222973 0.112365471124 0.5
389 1 0.534014425208 0.112365471124 0.5
390 1 0.537684627443 0.112365471124 0.5
391 1 0.541354829678 0.112365471124 0.5
392 1 0.545025031913 0.112365471124 0.5
393 1 0.548695234148 0.112365471124 0.5
394 1 0.552365436383 0.112365471124 0.5
395 1 0.556035638619 0.112365471124 0.5
396 1 0.559705840854 0.112365471124 0.5
397 1 0.563376043089 0.112365471124 0.5
398 1 0.567046245324 0.112365471124 0.5
399 1 0.570716447559 0.112365471124 0.5
400 1 0.574386649794 0.112365471124 0.5
401 1 0.578056852029 0.112365471124 0.5
402 1 0.581727054264 0.112365471124 0.5
403 1 0.585397256499 0.112365471124 0.5
404 1 0.589067458735 0.112365471124 0.5
405 1 0.59273766097 0.112365471124 0.5
406 1 0.596407863205 0.112365471124 0.5
407 1 0.60007806544 0.112365471124 0.5
408 1 0.603748267675 0.112365471124 0.5
409 1 0.60741846991 0.112365471124 0.5
410 1 0.611088672145 0.112365471124 0.5
411 1 0.61475887438 0.112365471124 0.5
412 1 0.618429076615 0.112365471124 0.5
413 1 0.622099278851 0.112365471124 0.5
414 1 0.625769481086 0.112365471124 0.5
415 1 0.629439683321 0.112365471124 0.5
416 1 0.633109885556 0.112365471124 0.5
417 1 0.636780087791 0.112365471124 0.5
418 1 0.640450290026 0.112365471124 0.5
419 1 0.644120492261 0.112365471124 0.5
420 1 0.647790694496 0.112365471124 0.5
421 1 0.651460896731 0.112365471124 0.5
422 1 0.655131098966 0.112365471124 0.5
423 1 0.658801301202 0.112365471124 0.5
424 1 0.662471503437 0.112365471124 0.5
425 1 0.666141705672 0.112365471124 0.5
426 1 0.669811907907 0.112365471124 0.5
427 1 0.673482110142 0.112365471124 0.5
428 1 0.677152312377 0.112365471124 0.5
429 1 0.680822514612 0.112365471124 0.5
430 1 0.684492716847 0.112365471124 0.5
431 1 0.688162919082 0.112365471124 0.5
432 1 0.691833121318 0.112365471124 0.5
433 1 0.695503323553 0.112365471124 0.5
434 1 0.699173525788 0.112365471124 0.5
435 1 0.702843728023 0.112365471124 0.5
436 1 0.706513930258 0.112365471124 0.5
437 1 0.710184132493 0.112365471124 0.5
438 1 0.713854334728 0.112365471124 0.5
439 1 0.717524536963 0.112365471124 0.5
440 1 0.721194739198 0.112365471124 0.5
441 1 0.724864941433 0.112365471124 0.5
442 1 0.728535143669 0.112365471124 0.5
443 1 0.732205345904 0.112365471124 0.5
444 1 0.735875548139 0.112365471124 0.5
445 1 0.739545750374 0.112365471124 0.5
446 1 0.743215952609 0.112365471124 0.5
447 1 0.746886154844 0.112365471124 0.5
448 1 0.750556357079 0.112365471124 0.5
449 1 0.754226559314 0.112365471124 0.5
450 1 0.757896761549 0.112365471124 0.5
451 1 0.0734040447021 0.116110986828 0.5
452 1 0.0770742469372 0.116110986828 0.5
453 1 0.0807444491723 0.116110986828 0.5
454 1 0.0844146514074 0.116110986828 0.5
455 1 0.0880848536425 0.116110986828 0.5
456 1 0.0917550558777 0.116110986828 0.5
457 1 0.0954252581128 0.116110986828 0.5
458 1 0.0990954603479 0.116110986828 0.5
459 1 0.102765662583 0.116110986828 0.5
460 1 0.106435864818 0.116110986828 0.5
461 1 0.110106067053 0.116110986828 0.5
462 1 0.113776269288 0.116110986828 0.5
463 1 0.117446471523 0.116110986828 0.5
464 1 0.121116673759 0.116110986828 0.5
465 1 0.124786875994 0.116110986828 0.5
466 1 0.128457078229 0.116110986828 0.5
467 1 0.132127280464 0.116110986828 0.5
468 1 0.135797482699 0.116110986828 0.5
469 1 0.139467684934 0.116110986828 0.5
470 1 0.143137887169 0.116110986828 0.5
471 1 0.146808089404 0.116110986828 0.5
472 1 0.150478291639 0.116110986828 0.5
473 1 0.154148493874 0.116110986828 0.5
474 1 0.15781869611 0.116110986828 0.5
475 1 0.161488898345 0.116110986828 0.5
476 1 0.16515910058 0.116110986828 0.5
477 1 0.168829302815 0.116110986828 0.5
478 1 0.17249950505 0.116110986828 0.5
479 1 0.176169707285 0.116110986828 0.5
480 1 0.17983990952 0.116110986828 0.5
481 1 0.183510111755 0.116110986828 0.5
482 1 0.18718031399 0.116110986828 0.5
483 1 0.190850516226 0.116110986828 0.5
484 1 0.194520718461 0.116110986828 0.5
485 1 0.198190920696 0.116110986828 0.5
486 1 0.201861122931 0.116110986828 0.5
487 1 0.205531325166 0.116110986828 0.5
488 1 0.209201527401 0.116110986828 0.5
489 1 0.212871729636 0.116110986828 0.5
490 1 0.216541931871 0.116110986828 0.5
491 1 0.220212134106 0.116110986828 0.5
492 1 0.223882336341 0.116110986828 0.5
493 1 0.227552538577 0.116110986828 0.5
494 1 0.231222740812 0.116110986828 0.5
495 1 0.234892943047 0.116110986828 0.5
496 1 0.238563145282 0.116110986828 0.5
497 1 0.242233347517 0.116110986828 0.5
498 1 0.245903549752 0.116110986828 0.5
499 1 0.249573751987 0.116110986828 0.5
500 1 0.253243954222 0.116110986828 0.5
501 1 0.256914156457 0.116110986828 0.5
502 1 0.260584358693 0.116110986828 0.5
503 1 0.264254560928 0.116110986828 0.5
504 1 0.267924763163 0.116110986828 0.5
505 1 0.271594965398 0.116110986828 0.5
506 1 0.275265167633 0.116110986828 0.5
507 1 0.278935369868 0.116110986828 0.5
508 1 0.282605572103 0.116110986828 0.5
509 1 0.286275774338 0.116110986828 0.5
510 1 0.289945976573 0.116110986828 0.5
511 1 0.293616178808 0.116110986828 0.5
512 1 0.297286381044 0.116110986828 0.5
513 1 0.300956583279 0.116110986828 0.5
514 1 0.304626785514 0.116110986828 0.5
515 1 0.308296987749 0.116110986828 0.5
516 1 0.311967189984 0.116110986828 0.5
517 1 0.315637392219 0.116110986828 0.5
518 1 0.319307594454 0.116110986828 0.5
519 1 0.322977796689 0.116110986828 0.5
520 1 0.326647998924 0.116110986828 0.5
521 1 0.33031820116 0.116110986828 0.5
522 1 0.333988403395 0.116110986828 0.5
523 1 0.33765860563 0.116110986828 0.5
524 1 0.341328807865 0.116110986828 0.5
525 1 0.3449990101 0.116110986828 0.5
526 1 0.348669212335 0.116110986828 0.5
527 1 0.35233941457 0.116110986828 0.5
528 1 0.356009616805 0.116110986828 0.5
529 1 0.35967981904 0.116110986828 0.5
530 1 0.363350021276 0.116110986828 0.5
531 1 0.367020223511 0.116110986828 0.5
532 1 0.370690425746 0.116110986828 0.5
533 1 0.374360627981 0.116110986828 0.5
534 1 0.378030830216 0.116110986828 0.5
535 1 0.381701032451 0.116110986828 0.5
536 1 0.385371234686 0.116110986828 0.5
537 1 0.389041436921 0.116110986828 0.5
538 1 0.392711639156 0.116110986828 0.5
539 1 0.396381841391 0.116110986828 0.5
540 1 0.400052043627 0.116110986828 0.5
541 1 0.403722245862 0.116110986828 0.5
542 1 0.407392448097 0.116110986828 0.5
543 1 0.411062650332 0.116110986828 0.5
544 1 0.414732852567 0.116110986828 0.5
545 1 0.418403054802 0.116110986828 0.5
546 1 0.422073257037 0.116110986828 0.5
547 1 0.425743459272 0.116110986828 0.5
548 1 0.429413661507 0.116110986828 0.5
549 1 0.433083863743 0.116110986828 0.5
550 1 0.436754065978 0.116110986828 0.5
551 1 0.440424268213 0.116110986828 0.5
552 1 0.444094470448 0.116110986828 0.5
553 1 0.447764672683 0.116110986828 0.5
554 1 0.451434874918 0.116110986828 0.5
555 1 0.455105077153 0.116110986828 0.5
556 1 0.458775279388 0.116110986828 0.5
557 1 0.462445481623 0.116110986828 0.5
558 1 0.466115683858 0.116110986828 0.5
559 1 0.469785886094 0.116110986828 0.5
560 1 0.473456088329 0.116110986828 0.5
561 1 0.477126290564 0.116110986828 0.5
562 1 0.480796492799 0.116110986828 0.5
563 1 0.484466695034 0.116110986828 0.5
564 1 0.488136897269 0.116110986828 0.5
565 1 0.491807099504 0.116110986828 0.5
566 1 0.495477301739 0.116110986828 0.5
567 1 0.499147503974 0.116110986828 0.5
568 1 0.50281770621 0.116110986828 0.5
569 1 0.506487908445 0.116110986828 0.5
570 1 0.51015811068 0.116110986828 0.5
571 1 0.513828312915 0.116110986828 0.5
572 1 0.51749851515 0.116110986828 0.5
573 1 0.521168717385 0.116110986828 0.5
574 1 0.52483891962 0.116110986828 0.5
575 1 0.528509121855 0.116110986828 0.5
576 1 0.53217932409 0.116110986828 0.5
577 1 0.535849526326 0.116110986828 0.5
578 1 0.539519728561 0.116110986828 0.5
579 1 0.543189930796 0.116110986828 0.5
580 1 0.546860133031 0.116110986828 0.5
581 1 0.550530335266 0.116110986828 0.5
582 1 0.554200537501 0.116110986828 0.5
583 1 0.557870739736 0.116110986828 0.5
584 1 0.561540941971 0.116110986828 0.5
585 1 0.565211144206 0.116110986828 0.5
586 1 0.568881346441 0.116110986828 0.5
587 1 0.572551548677 0.116110986828 0.5
588 1 0.576221750912 0.116110986828 0.5
589 1 0.579891953147 0.116110986828 0.5
590 1 0.583562155382 0.116110986828 0.5
591 1 0.587232357617 0.116110986828 0.5
592 1 0.590902559852 0.116110986828 0.5
593 1 0.594572762087 0.116110986828 0.5
594 1 0.598242964322 0.116110986828 0.5
595 1 0.601913166557 0.116110986828 0.5
596 1 0.605583368793 0.116110986828 0.5
597 1 0.609253571028 0.116110986828 0.5
598 1 0.612923773263 0.116110986828 0.5
599 1 0.616593975498 0.116110986828 0.5
600 1 0.620264177733 0.116110986828 0.5
601 1 0.568855529707 0.24298374468 0.5
602 1 0.568701815113 0.246728165169 0.5
603 1 0.568240940998 0.250466016672 0.5
604 1 0.567473715893 0.254190741727 0.5
605 1 0.566401485769 0.257895805901 0.5
606 1 0.565026131685 0.261574709253 0.5
607 1 0.563350066478 0.265220997736 0.5
608 1 0.561376230535 0.268828274521 0.5
609 1 0.559108086637 0.272390211218 0.5
610 1 0.556549613877 0.27590055898 0.5
611 1 0.553705300687 0.279353159465 0.5
612 1 0.550580136959 0.282741955639 0.5
613 1 0.547179605291 0.2860610024 0.5
614 1 0.543509671372 0.289304477013 0.5
615 1 0.539576773513 0.292466689322 0.5
616 1 0.535387811352 0.295542091732 0.5
617 1 0.530950133754 0.298525288941 0.5
618 1 0.526271525912 0.301411047409 0.5
619 1 0.521360195695 0.304194304534 0.5
620 1 0.516224759244 0.306870177537 0.5
621 1 0.510874225861 0.309433972029 0.5
622 1 0.505317982198 0.311881190242 0.5
623 1 0.499565775795 0.314207538924 0.5
624 1 0.493627697977 0.316408936868 0.5
625 1 0.487514166151 0.318481522076 0.5
626 1 0.481235905528 0.320421658527 0.5
627 1 0.47480393031 0.322225942565 0.5
628 1 0.468229524369 0.32389120886 0.5
629 1 0.461524221445 0.325414535971 0.5
630 1 0.45469978492 0.326793251463 0.5
631 1 0.447768187173 0.328024936602 0.5
632 1 0.440741588582 0.329107430594 0.5
633 1 0.433632316188 0.330038834375 0.5
634 1 0.426452842073 0.330817513947 0.5
635 1 0.419215761471 0.331442103242 0.5
636 1 0.411933770683 0.331911506517 0.5
637 1 0.404619644794 0.332224900281 0.5
638 1 0.397286215267 0.332381734733 0.5
639 1 0.389946347429 0.332381734733 0.5
640 1 0.382612917902 0.332224900281 0.5
641 1 0.375298792013 0.331911506517 0.5
642 1 0.368016801225 0.331442103242 0.5
643 1 0.360779720623 0.330817513947 0.5
644 1 0.353600246508 0.330038834375 0.5
645 1 0.346490974115 0.329107430594 0.5
646 1 0.339464375524 0.328024936602 0.5
647 1 0.332532777776 0.326793251463 0.5
648 1 0.325708341251 0.325414535971 0.5
649 1 0.319003038327 0.32389120886 0.5
650 1 0.312428632386 0.322225942565 0.5
651 1 0.305996657168 0.320421658527 0.5
652 1 0.299718396545 0.318481522076 0.5
653 1 0.293604864719 0.316408936868 0.5
654 1 0.287666786901 0.314207538924 0.5
655 1 0.281914580498 0.311881190242 0.5
656 1 0.276358336836 0.309433972029 0.5
657 1 0.271007803452 0.306870177537 0.5
658 1 0.265872367001 0.304194304534 0.5
659 1 0.260961036784 0.301411047409 0.5
660 1 0.256282428942 0.298525288941 0.5
661 1 0.251844751344 0.295542091732 0.5
662 1 0.247655789184 0.292466689322 0.5
663 1 0.243722891324 0.289304477013 0.5
664 1 0.240052957405 0.2860610024 0.5
665 1 0.236652425737 0.282741955639 0.5
666 1 0.233527262009 0.279353159465 0.5
667 1 0.230682948819 0.27590055898 0.5
668 1 0.228124476059 0.272390211218 0.5
669 1 0.225856332161 0.268828274521 0.5
670 1 0.223882496218 0.265220997736 0.5
671 1 0.222206431011 0.261574709253 0.5
672 1 0.220831076927 0.257895805901 0.5
673 1 0.219758846804 0.254190741727 0.5
674 1 0.218991621698 0.250466016672 0.5
675 1 0.218530747583 0.246728165169 0.5
676 1 0.218377032989 0.24298374468 0.5
677 1 0.218530747583 0.239239324191 0.5
678 1 0.218991621698 0.235501472688 0.5
679 1 0.219758846804 0.231776747633 0.5
680 1 0.220831076927 0.228071683458 0.5
681 1 0.222206431011 0.224392780106 0.5
682 1 0.223882496218 0.220746491624 0.5
683 1 0.225856332161 0.217139214839 0.5
684 1 0.228124476059 0.213577278142 0.5
685 1 0.230682948819 0.210066930379 0.5
686 1 0.233527262009 0.206614329894 0.5
687 1 0.236652425737 0.203225533721 0.5
688 1 0.240052957405 0.19990648696 0.5
689 1 0.243722891324 0.196663012346 0.5
690 1 0.247655789184 0.193500800037 0.5
691 1 0.251844751344 0.190425397628 0.5
692 1 0.256282428942 0.187442200418 0.5
693 1 0.260961036784 0.184556441951 0.5
694 1 0.265872367001 0.181773184826 0.5
695 1 0.271007803452 0.179097311822 0.5
696 1 0.276358336836 0.176533517331 0.5
697 1 0.281914580498 0.174086299118 0.5
698 1 0.287666786901 0.171759950436 0.5
699 1 0.293604864719 0.169558552491 0.5
700 1 0.299718396545 0.167485967284 0.5
701 1 0.305996657168 0.165545830832 0.5
702 1 0.312428632386 0.163741546795 0.5
703 1 0.319003038327 0.1620762805 0.5
704 1 0.325708341251 0.160552953389 0.5
705 1 0.332532777776 0.159174237896 0.5
706 1 0.339464375524 0.157942552757 0.5
707 1 0.346490974115 0.156860058766 0.5
708 1 0.353600246508 0.155928654985 0.5
709 1 0.360779720623 0.155149975413 0.5
710 1 0.368016801225 0.154525386118 0.5
711 1 0.375298792013 0.154055982842 0.5
712 1 0.382612917902 0.153742589079 0.5
713 1 0.389946347429 0.153585754626 0.5
714 1 0.397286215267 0.153585754626 0.5
715 1 0.404619644794 0.153742589079 0.5
716 1 0.411933770683 0.154055982842 0.5
717 1 0.419215761471 0.154525386118 0.5
718 1 0.426452842073 0.155149975413 0.5
719 1 0.433632316188 0.155928654985 0.5
720 1 0.440741588582 0.156860058766 0.5
721 1 0.447768187173 0.157942552757 0.5
722 1 0.45469978492 0.159174237896 0.5
723 1 0.461524221445 0.160552953389 0.5
724 1 0.468229524369 0.1620762805 0.5
725 1 0.47480393031 0.163741546795 0.5
726 1 0.481235905528 0.165545830832 0.5
727 1 0.487514166151 0.167485967284 0.5
728 1 0.493627697977 0.169558552491 0.5
729 1 0.499565775795 0.171759950436 0.5
730 1 0.505317982198 0.174086299118 0.5
731 1 0.510874225861 0.176533517331 0.5
732 1 0.516224759244 0.179097311822 0.5
733 1 0.521360195695 0.181773184826 0.5
734 1 0.526271525912 0.184556441951 0.5
735 1 0.530950133754 0.187442200418 0.5
736 1 0.535387811352 0.190425397628 0.5
737 1 0.539576773513 0.193500800037 0.5
738 1 0.543509671372 0.196663012346 0.5
739 1 0.547179605291 0.19990648696 0.5
740 1 0.550580136959 0.203225533721 0.5
741 1 0.553705300687 0.206614329894 0.5
742 1 0.556549613877 0.210066930379 0.5
743 1 0.559108086637 0.213577278142 0.5